16
Lattice="7.808535 0.0 0.0 -1.319915713725 8.995627533375 0.0 0.73895290119 -2.295560927835 8.86771592154" Properties=species:S:1:pos:R:3:forces:R:3 energy=-298.29856672 unit=Ry pbc="T T T"
C 0.4276227065 0.8859735599 1.8095186668 0.0202469400 0.0391920400 -0.1271028200
C 1.9539203428 1.3373670086 4.1548465116 -0.0418531800 -0.0263061900 0.0626353600
C 0.7890438724 -0.2263460040 6.2047642028 0.0371735800 0.0063230100 -0.0518325900
C 2.2309726306 0.1496779031 8.5542797649 0.0867695300 -0.0263155300 0.1090628300
C 1.7438785598 5.7226574434 0.8007106045 -0.0253853700 -0.0034122400 -0.1206070100
C -0.7811525669 6.8814940120 0.8746543075 -0.1014149800 -0.0739946000 0.0423927000
C 3.1607372356 5.8388000313 3.2377051842 0.1254529600 0.1605995500 -0.2140819200
C 2.1127326702 4.4066905058 5.0464570529 -0.1355916100 -0.0447304200 0.1372475600
C 3.5915754968 4.7211402102 7.4286833490 -0.0557334700 0.0350143400 0.1238291000
C 5.5645635012 1.7883973604 1.8510663198 0.1405530600 0.0023418700 0.1025099000
C 4.5360232710 0.5254761437 3.9752470832 -0.0287044300 -0.0471296500 0.0122246300
C 5.0132543812 -0.7346160409 8.4064274973 -0.1817075800 -0.0188486600 -0.0736618400
C 6.0130896559 0.7616577784 6.3893907661 0.0438959700 0.0252818000 0.0001304600
C 5.8703207445 5.3970954128 2.8549229900 -0.0741007100 -0.0577812600 0.0660512900
C 7.2277486604 5.5289792264 5.3606803098 0.0625953800 -0.0149906100 -0.0550763700
C 6.0866757280 3.8814782906 7.2804718887 0.1278039100 0.0447565500 -0.0137212900
16
Lattice="9.17803 0.0 0.0 0.09800300433999999 9.17803917803 0.0 -1.9489546705 -2.81123976703 7.34550781808" Properties=species:S:1:pos:R:3:forces:R:3 energy=-298.41581582 unit=Ry pbc="T T T"
C 0.8554034096 3.0593907532 2.4392018964 0.0240845900 0.0784991800 -0.0078180200
C 1.1101589061 7.6798285745 2.4094953667 -0.0730366000 0.0208381500 -0.0087815600
C 0.8381294394 -1.6673057105 5.1481240671 0.0220030800 0.0301759400 0.0435219300
C 0.8813194129 3.0572742994 5.1401116470 -0.0062479100 -0.0880191700 0.0826599800
C 4.1892585609 3.1474713893 1.6051273106 -0.0708488300 0.0674496500 -0.0932110300
C 2.1350318863 0.5954338743 6.1664035506 0.0423189500 0.0046578500 -0.0136585600
C 4.2380324480 7.8196677930 1.5688979550 -0.0558476400 -0.0557410000 -0.0729763700
C 2.4281845891 5.1753929121 6.0708400666 -0.0370477700 0.0269211600 0.0410922900
C 5.4787323104 0.8687785528 2.4261250392 0.0661449700 -0.0407987600 0.0679425000
C 5.5509946118 0.6460479563 5.2243751404 -0.0356260600 0.0748020200 -0.0565682400
C 5.5536599117 5.4396146287 2.4459101185 0.0223148500 -0.0002027400 0.0323011200
C 5.4379515697 5.2211242822 5.2785530515 0.0324946600 0.0704869400 -0.0829756800
C 8.6818363285 0.8727489685 1.5297261230 0.0265213300 -0.0054936300 -0.0196476600
C 6.8485184114 -1.6033889918 6.0957272128 -0.0019259300 -0.1197900600 0.0218622900
C 8.6495415943 5.4815857599 1.4710326211 0.0880439700 0.0010600300 0.0535131600
C 6.9486929376 2.9880728710 6.0865620320 -0.0433456500 -0.0648455600 0.0127438500
16
Lattice="9.006096 0.0 0.0 0.170314281456 9.165467874815999 0.0 -2.111533243776 -2.311126343328 7.614005729087999" Properties=species:S:1:pos:R:3:forces:R:3 energy=-298.55401939 unit=Ry pbc="T T T"
C -0.4765170424 0.7351000708 3.1823553563 0.0283780700 0.0154801700 0.0008423400
C -0.7235326411 0.6448580882 5.9436613149 0.1114398400 0.1000305200 0.1224746800
C -0.3975434872 5.3848312569 3.1833757470 0.0411980400 -0.0313482300 0.0531334300
C -0.5360608461 5.3705827124 6.0981843077 0.0475366400 -0.0352458500 -0.0187842300
C 2.8107791458 0.9225907785 2.2589972585 -0.0344419400 -0.0794914500 -0.0152001100
C 0.7618166545 -1.5605853210 7.0721305474 -0.0275052400 0.0436323700 -0.0527494600
C 0.8127146061 3.0576902737 7.0864925687 0.0008699600 -0.0312111400 -0.1364633400
C 2.9917386327 5.4862723198 2.1713895590 -0.1024947800 -0.0843380500 0.0677721700
C 4.1277288559 -1.5242853504 6.0250142807 -0.1179179500 0.0147505900 -0.0364466400
C 4.1676213581 3.1811836633 3.2524831241 0.0018873200 -0.0480151200 -0.0374304100
C 3.9613574433 3.0066869508 6.0505060354 0.0211990400 0.1006900100 -0.0094101400
C 4.2413200429 7.6720428129 3.1509673106 0.0594415600 0.0794710900 0.0455653100
C 5.3683528031 0.7993297462 6.9770955206 -0.0020560400 -0.0529821800 0.0077027700
C 7.3334982606 3.0624148716 2.2182176558 -0.0209215200 0.0206404100 0.0030367200
C 7.3340656447 7.6042962570 2.1530405390 0.0166095200 0.0624415500 0.0467865200
C 5.4843062891 5.3859272988 7.0274008710 -0.0232224900 -0.0745046900 -0.0408296000
16
Lattice="9.05572 0.0 0.0 0.17125272092000002 9.21597002112 0.0 -2.1231678883200003 -2.3238607549600006 7.65595924816" Properties=species:S:1:pos:R:3:forces:R:3 energy=-298.50700972 unit=Ry pbc="T T T"
C -0.4769593390 0.7392836248 3.2778247115 0.0028925400 0.0807330100 -0.1058624800
C -0.3552287284 0.6655030517 5.9337016678 -0.0587320900 0.0538466100 0.0784759200
C -0.3867698012 5.5232728925 3.2108902627 0.0125764200 -0.1126157100 -0.0563644900
C -0.3232240028 5.3132671235 5.8752153002 -0.0514042300 0.0218658100 0.1544920700
C 2.8893723575 0.8212505688 2.0998258644 -0.0601493300 -0.0460698800 0.0789081200
C 0.7352909578 -1.5872223060 7.0401557990 0.0399114600 -0.0353293800 -0.0722521200
C 0.8008000363 2.9827621867 6.8443801883 0.0609402500 0.0306272300 0.1256817000
C 2.8236477529 5.3216201196 2.2670288674 -0.0059242500 0.1341946500 -0.1210970800
C 4.0076179417 -1.5926765661 6.1245455334 -0.0354590000 0.0402604500 -0.0615664000
C 4.1066014892 3.0801972061 3.1476414919 0.0438974300 0.0095050800 0.0536560700
C 3.9816905098 3.0760768535 6.0308152091 -0.0148164600 -0.0549946900 0.0191172000
C 4.3643979150 7.8041715007 3.1736250693 -0.0552186900 -0.1106057500 0.0541480800
C 5.1228588380 0.7509673147 7.1413688647 0.0445776100 -0.0198340500 -0.0612922100
C 7.2417325039 3.1021174819 2.2057451879 0.0364304100 0.0328982100 0.0789848000
C 7.3014477327 7.8159068082 2.3929223924 0.0117828800 -0.1004245200 -0.1211236400
C 5.2877562546 5.2755292215 7.1535198298 0.0286950500 0.0759429300 -0.0439055300
16
Lattice="9.23779 0.0 0.0 0.09864112162000001 9.23779923779 0.0 -1.9616447065000002 -2.82954431479 7.393335897440001" Properties=species:S:1:pos:R:3:forces:R:3 energy=-298.38617724 unit=Ry pbc="T T T"
C 0.8851456384 3.0612049935 2.5370703407 0.0281442500 0.0286568500 -0.0931365800
C 0.8279683372 7.7282621355 2.5074022544 0.0541086100 0.0076582000 -0.0986163400
C 0.8924832150 -1.5983057978 5.1480864190 -0.0666009000 -0.1300020800 0.0556460200
C 0.9085181709 2.8397862526 5.1805138333 -0.0373197500 0.0212737800 0.0510150000
C 4.3254695336 3.2675633654 1.5122982778 -0.0531905100 -0.0812318800 -0.0091615800
C 2.2806348330 0.4542978842 6.1210492606 0.0393122800 0.1212283900 0.0404316300
C 4.2556068991 7.7517510641 1.3080267226 0.0151660500 0.1294032400 0.1417000000
C 2.1749425063 5.1417936365 6.0301540259 0.0655581600 0.0495990000 0.0214789400
C 5.5793979104 0.9057080352 2.5682321777 -0.0530697700 -0.0631594500 -0.1586548400
C 5.3200137001 0.6453436954 5.2548179971 0.0798770000 -0.0028629900 0.0159653800
C 5.5719328523 5.5502582256 2.3335849215 0.0282592900 -0.0605734900 0.0757938800
C 5.4571514640 5.3368135450 5.1868823657 0.0500829000 -0.0299322900 -0.0169167300
C 8.7980545680 0.8995889231 1.5139204337 -0.0396118500 -0.0347262400 0.0241222800
C 6.7912028886 -1.6724870990 6.1790450300 -0.0355093600 -0.0264793900 -0.0231223700
C 8.8573168384 5.4142918135 1.5877442325 -0.0474862400 0.0755963400 -0.0568003100
C 6.8674155798 2.8866698844 6.1456919892 -0.0277201600 -0.0044479800 0.0302556000
16
Lattice="9.197969 0.0 0.0 0.09821591298200001 9.197978197969 0.0 -1.9531887171500002 -2.8173471026690002 7.361465717584001" Properties=species:S:1:pos:R:3:forces:R:3 energy=-298.40421978 unit=Ry pbc="T T T"
C 0.8804479886 3.1217143355 2.5237856439 -0.0157001700 0.0223724800 -0.1792556100
C 1.0637966235 7.7853688357 2.5402260937 -0.0764015700 -0.0675432300 -0.1329006700
C 0.8499098117 -1.6947589009 5.1877704104 0.0087077400 0.0205767000 0.0868038900
C 0.8573196956 2.9730687178 5.1128051235 -0.0166916300 -0.0827820200 0.1439683700
C 4.2336292140 3.2128551707 1.4920825738 -0.0473242200 -0.0107013900 0.0077501800
C 2.1924600837 0.5841354173 6.1194437280 0.0220626300 -0.0107136500 -0.0047440100
C 4.2593669708 7.7898096151 1.4923465555 -0.0331486800 0.0248307000 0.0376353400
C 2.1569329285 5.0830984430 6.1513036530 0.0609907800 0.1122018200 -0.0246414000
C 5.5683612123 0.9046423263 2.4518630451 -0.0027082500 -0.0938708600 -0.0284786400
C 5.5428497255 0.6757297124 5.2099365959 -0.0548413600 -0.0183698200 -0.0121324200
C 5.5631459639 5.4232494544 2.3843619100 0.0408069600 0.0683915500 0.0275587400
C 5.6054382253 5.3196545691 5.1256178943 -0.0252471500 -0.0768799700 0.0308418800
C 8.6195694362 0.8316500037 1.5417479272 0.0596979800 0.0741073800 0.1004872600
C 6.7135543426 -1.6841426051 6.2680323182 0.0381546400 -0.0228863600 -0.1525902200
C 8.7761906127 5.5427743021 1.4408498865 0.0487821600 -0.0229048500 0.0769596300
C 6.9317421247 2.8564347917 6.0668147890 -0.0071398800 0.0841715100 0.0227376900
16
Lattice="9.19711 0.0 0.0 0.09820674058000001 9.19711919711 0.0 -1.9530063085000002 -2.81708399011 7.360778228960001" Properties=species:S:1:pos:R:3:forces:R:3 energy=-298.39663213 unit=Ry pbc="T T T"
C 1.0510448111 3.1957538410 2.4771661622 -0.0562978100 -0.0607004000 -0.0450345500
C 1.0279490285 7.6628398324 2.4508044858 -0.0060546800 0.1105256500 0.0129315400
C 0.7697309681 -1.6883098039 5.2112977384 0.0184509800 0.0412209600 -0.0113382100
C 0.8723394455 2.9141466102 5.1965768441 0.0200485200 0.0489928600 0.0014669600
C 4.0186726159 3.2353998231 1.4745625295 0.0874408300 -0.0275300800 0.0568184500
C 2.1943881393 0.5902971914 6.1081051753 -0.0221387100 -0.0250261900 -0.0022615100
C 4.3119390231 7.7420379860 1.4927985592 -0.0394577700 0.0626712300 -0.0155128600
C 2.2444277754 5.2453886660 6.0232186092 0.0516744700 -0.0687458800 0.1171666300
C 5.4432801227 0.8671458375 2.5292852649 0.0315446000 -0.0144723400 -0.1378939900
C 5.5877308521 0.7010524689 5.1585173635 -0.1098350700 -0.0999856300 0.0714330600
C 5.6894931954 5.4129131050 2.3009302207 -0.0407065800 0.0102614200 0.1302862600
C 5.4878971428 5.2569347179 5.2227876879 -0.0160115200 0.0049204500 -0.0817527700
C 8.6984279804 0.9289761686 1.5882921523 0.0424461700 -0.0063146500 -0.0477281800
C 6.8176971609 -1.7205695869 6.1562364111 0.0068683900 0.0090772800 -0.0034199800
C 8.8775554933 5.5194928945 1.5948000274 -0.0955384900 -0.0662451400 -0.1104669400
C 6.7226247954 2.8642394125 6.1234873418 0.1275666600 0.0813504700 0.0653060700
16
Lattice="9.035308 0.0 0.0 0.17086670958800002 9.195196810368 0.0 -2.1183821724480003 -2.318622668344 7.638702371824" Properties=species:S:1:pos:R:3:forces:R:3 energy=-298.52084298 unit=Ry pbc="T T T"
C -0.3526815019 0.8197689772 3.2206978802 0.0325446400 -0.0244362200 -0.0323858900
C -0.5918921847 0.8620668681 5.9722717267 0.0080187600 -0.0254050500 0.1029624800
C -0.3394538110 5.3421231444 3.1179158305 0.0583640000 0.0197777800 0.0855581900
C -0.5406899978 5.5171307357 6.0336874258 0.0073523300 -0.1200814800 -0.0120153600
C 2.6774960668 0.6997746658 2.2851893182 0.0595430000 0.0556551100 -0.0050961900
C 0.7790468440 -1.5795543516 7.1179180611 -0.0264259900 0.1011765000 -0.0776353800
C 0.6998505623 3.1568625257 7.0061784070 0.0621351800 -0.0511404900 -0.0239332400
C 2.8880684374 5.4079806009 2.1640764356 -0.0214646700 -0.0965416500 0.0379851400
C 3.9377733537 -1.5773244376 6.1066123002 -0.0384576800 0.0282936700 -0.0542244900
C 4.2466299977 3.0138110118 3.2928095769 -0.0885974800 0.0159047500 -0.1695823200
C 3.8402254580 2.9568352630 5.9652982760 0.0974948800 0.1216410200 0.1193548400
C 4.1941529288 7.5782932061 3.1675395491 0.0289629700 0.0658547400 0.0943154300
C 5.3605099962 0.7963702401 6.9566296815 -0.0382018600 -0.0543877300 -0.0330952300
C 7.3923248827 3.0469940839 2.0602553255 -0.0265805500 0.0345626500 0.1269925300
C 7.6006104168 7.6999915766 2.3689041574 -0.1366214000 -0.0117971700 -0.1780668100
C 5.3868912885 5.4072433198 7.0553115084 0.0219338700 -0.0590764100 0.0188662900
16
Lattice="8.897676 0.0 0.0 -0.41892927910800004 9.059515828764 0.0 -2.476828272768 -2.614697762388 7.983973651560001" Properties=species:S:1:pos:R:3:forces:R:3 energy=-298.42529542 unit=Ry pbc="T T T"
C 0.6791186798 -0.0557635150 3.0689534845 0.0030253800 -0.0592868800 0.0060490500
C 0.5036004537 -0.2219952367 5.9912634811 -0.0271453900 -0.0240527500 -0.0052959100
C 0.3767907753 4.3958247566 3.1442776505 0.0324135700 0.0750529400 -0.0322683200
C 0.0022003953 4.3667222380 6.0372030721 0.0285996700 -0.0391341000 0.0115099600
C 3.8646788776 -0.0830357817 2.0999956784 -0.0254167300 0.0315793200 -0.0402298300
C 3.6106813696 4.4615679051 2.0983709627 -0.0128651000 0.0056527400 -0.0139503300
C 1.2492523955 2.0547563345 7.1389319995 0.0493552300 -0.0031929800 0.0286710700
C 1.2451256534 6.5472214195 7.1486260175 0.0116958200 -0.0079766300 -0.0252816400
C 5.0152008807 2.1692169283 3.1244358330 0.0138054700 -0.0070000900 -0.0002408800
C 4.9106238253 1.9582103215 5.9736327361 -0.0593756400 0.0112414200 0.0158154600
C 4.7855803357 6.7546938694 3.1456007349 -0.0163973100 -0.0581089300 -0.0291108900
C 4.4671992442 6.4587820791 6.0403021326 -0.0004523800 0.0393169200 0.0016066300
C 8.1138414612 2.2039312112 2.0826487692 -0.0027194200 -0.0458233800 0.0014640600
C 5.7802381892 -0.3590763922 7.2574935322 0.0541365500 0.0567066800 -0.0724964000
C 5.9803406941 4.2573644613 6.9868653781 -0.0487752100 -0.0205331700 0.0337001500
C 8.0803372622 6.6833950120 1.8638940662 0.0001154800 0.0455588900 0.1200578100
16
Lattice="9.189091 0.0 0.0 0.098121113698 9.189100189090999 0.0 -1.95130347385 -2.814627762391 7.354360334576" Properties=species:S:1:pos:R:3:forces:R:3 energy=-298.33788741 unit=Ry pbc="T T T"
C 1.0750161346 3.1026653332 2.4069822264 -0.0534778900 -0.0341212600 -0.0015168000
C 1.0487187940 7.7292633016 2.3657103430 -0.0245342200 0.0013117100 0.0270242100
C 1.0093931602 -1.5257346158 5.0786010844 -0.0323232800 -0.1076156500 0.0514681500
C 0.9222162539 2.8365731495 5.1632987740 0.0178189700 0.1198184500 0.0417872900
C 4.1627831946 3.1129084130 1.4417987019 -0.0548806300 0.0695827700 0.0309884300
C 2.3561858502 0.5574047466 6.0587453679 -0.0087775100 0.0769675700 0.0159083800
C 4.0315978937 7.8225592236 1.6914470073 0.0744455900 -0.0070601100 -0.1639078300
C 2.3127223687 5.2855449272 6.1659875734 -0.0342163700 -0.0970442500 -0.0239521400
C 5.4403893807 0.9638759168 2.4831754122 0.0266812100 -0.1703426900 0.0308082100
C 5.4463420739 0.7344197200 5.2277381935 -0.0051506500 0.0104368900 0.0145221000
C 5.4037092862 5.3309546582 2.3996116565 0.0744595700 0.1214881300 0.0845249400
C 5.4831342753 5.2704086565 5.1854463211 -0.0060017600 -0.0312636400 0.0454736100
C 8.7355229817 0.8597047056 1.4146467758 0.0191384600 0.0424038300 0.2022707800
C 6.5015272312 -1.6081736268 6.2915408804 0.0686960300 -0.0628954900 -0.2761441700
C 8.8737949096 5.4190918245 1.5736244825 -0.0096208400 0.0380801100 -0.0526548300
C 7.0164581614 2.8589853425 6.1594679133 -0.0522567000 0.0302536200 -0.0266003100
16
Lattice="7.811164 0.0 0.0 -1.32036010674 8.9986562071 0.0 0.739201693976 -2.296333803884 8.870701529616001" Properties=species:S:1:pos:R:3:forces:R:3 energy=-298.38144318 unit=Ry pbc="T T T"
C 0.4852154476 0.8465919200 1.6313139533 0.0109097900 0.0304458500 0.0817001700
C 1.9788271718 1.2839897649 4.2344038842 -0.0042232000 0.0124830500 -0.0753592500
C 0.8164275480 -0.1101288201 6.2149885680 0.0173387500 -0.0265940500 0.0015360000
C 2.3566586423 0.2452033736 8.6092899907 -0.0427519200 -0.0136006600 0.0403678300
C 1.7020081120 5.7598476640 0.6753313682 -0.0160676700 -0.0186032100 0.0065418100
C 3.2614406097 6.0984491255 3.1269487690 -0.0912491300 -0.0156063500 -0.0053598700
C 2.0363126522 4.4693347960 5.1027522393 0.0076453300 0.0337014700 -0.0401202600
C 3.4159633993 4.9717184010 7.5130977929 0.1200663400 -0.0197410300 0.0193889400
C 5.7676330512 1.8848354354 1.9647295831 -0.0664187500 0.0065053000 0.0059887500
C 4.5640857776 0.3705202210 3.9593353062 0.0216830300 -0.0392363200 0.0088616900
C 4.9120973484 -0.6930533371 8.4886692151 0.0164703100 -0.0415009200 -0.0803546700
C 5.9995027678 0.6337345765 6.3737629741 0.0483456700 0.0388457300 0.0385466000
C 6.9118818732 6.7342849052 0.8782763445 -0.0087380700 -0.0162788000 0.0123512100
C 5.8087728897 5.1028467544 2.8520317276 -0.0028174700 -0.0088620400 0.0070143700
C 7.2209274524 5.2259811626 5.3118695974 0.0651710600 0.1224544500 -0.1044684900
C 6.1111664816 4.0322033118 7.2930963589 -0.0753640700 -0.0444124800 0.0833651600
16
Lattice="9.18388 0.0 0.0 0.09806547064 9.18388918388 0.0 -1.950196918 -2.81303162788 7.35018978368" Properties=species:S:1:pos:R:3:forces:R:3 energy=-298.3769184 unit=Ry pbc="T T T"
C 0.9584499213 3.1787649547 2.3579244545 0.0221646800 -0.0707940300 0.0303360000
C 1.1097038330 7.7535834472 2.3586049800 -0.0319805800 -0.0327078000 0.0748133300
C 0.7724579836 -1.6123311567 5.1498056067 0.0770280000 0.0056639000 0.0579288800
C 0.8121984691 3.1062370991 5.0764658962 0.0352106200 -0.1238369000 0.0844496100
C 4.2959141592 3.1586017461 1.5554223259 -0.0819417400 0.0009891800 -0.0021983800
C 2.4147111397 0.6171374499 6.1906670752 -0.0867123900 -0.0287219200 -0.0923895400
C 4.0794840879 7.8877920776 1.4484053274 0.0310835300 -0.0977386900 0.1455144400
C 2.2131525253 5.1552856279 6.1688406660 0.0271460600 0.1096167000 -0.1173745600
C 5.5174335680 0.7821635080 2.5674950858 0.0085121100 -0.0005120500 -0.0801379500
C 5.4273121535 0.6003373782 5.3215634489 0.0084721800 0.0274870500 -0.0592169200
C 5.4146512565 5.4021979153 2.4865961236 0.0513009500 0.0858645500 -0.0018775000
C 5.4048052188 5.2733939983 5.2290230004 0.0253237500 -0.0152391500 -0.0179259100
C 8.7215396027 0.7956977919 1.5787264214 0.0039432200 0.0841756200 -0.0408376900
C 6.8853302481 -1.7489588211 6.1597890339 -0.0498820900 0.0296341600 -0.0181866000
C 8.9161625509 5.4588707204 1.4772234244 -0.0432153100 0.0781099300 -0.0752958700
C 6.8790181674 2.9564011786 5.9804728585 0.0035470000 -0.0519905400 0.1123986700
16
Lattice="9.04433 0.0 0.0 0.17103732463000001 9.20437846368 0.0 -2.1204974344800003 -2.3209378759400003 7.64632982324" Properties=species:S:1:pos:R:3:forces:R:3 energy=-298.57444488 unit=Ry pbc="T T T"
C -0.3129383402 0.8899340346 3.3171871052 -0.0343153400 -0.0919629100 -0.1227163400
C -0.5779136939 0.7890906595 6.0190613076 0.0143880400 -0.0119810300 0.0804274300
C -0.4487706103 5.4507445522 3.2184302571 0.0781406800 -0.0468846900 -0.0070048200
C -0.4919943678 5.3519497179 6.0771892165 -0.0376876300 0.0905926600 -0.0277461300
C 2.7077692966 0.7446088357 2.3200922311 0.0256180800 0.0447391600 -0.0618394700
C 0.6973314095 -1.5544191508 7.0843938427 0.0113271000 0.0323043500 -0.0292841900
C 0.7888039542 3.1759680322 7.0167042681 0.0113267800 -0.1574513400 0.0240615600
C 2.7788613482 5.3109047395 2.2061797992 0.0415832900 0.0749485100 -0.0054961700
C 3.8680048909 -1.5708083812 5.9967245258 0.0116842000 -0.0253326700 0.0124303900
C 4.2497859577 3.0990369612 3.1900464363 -0.0401411700 -0.0596397500 -0.0258301200
C 4.1750472323 2.9984287387 5.9714212037 -0.0607290500 0.0534207000 0.0435843400
C 4.2175284503 7.6264051643 3.1094876845 -0.0085762700 0.0086157600 0.0772799100
C 5.3293488417 0.6319788898 6.9489767074 0.0361959700 0.0833394200 0.0430396400
C 7.4270961685 3.1087695647 2.2147402575 -0.0728909600 -0.0057555200 -0.0261334700
C 7.3858051843 7.7110275335 2.1860163699 -0.0165248500 0.0366226900 0.0365827800
C 5.3595469551 5.3598300426 7.0269840536 0.0406011400 -0.0255753500 -0.0113553300
16
Lattice="8.903744 0.0 0.0 -0.419214978752 9.065694199615999 0.0 -2.478517409792 -2.616480923072 7.98941852864" Properties=species:S:1:pos:R:3:forces:R:3 energy=-298.4206454 unit=Ry pbc="T T T"
C 0.5945359307 -0.1079347463 3.1493423999 0.0008845900 0.0265347800 0.0060121800
C 0.1987199912 -0.3048615234 6.1097117371 0.0276824600 0.0641146100 -0.0413783400
C 0.5297282493 4.5148766733 3.0658537731 -0.0260913300 -0.0784817500 -0.0326721600
C 0.3498735109 4.2905094475 5.8691494913 -0.0329242700 0.0025349000 0.0755839800
C 3.9424220277 -0.1690981253 2.0424538763 -0.0555106600 0.0349298800 0.0268827100
C 3.6683932793 4.4445789433 1.9956451133 -0.0326245500 0.0213674300 0.0101073000
C 1.4534088845 2.0076829752 7.0717523725 0.0161520100 -0.0235559300 -0.0042569400
C 1.1263583406 6.5424212302 7.1341320030 0.0551567900 -0.0368814000 0.0091059800
C 4.8846206696 2.1911561952 3.0987922837 0.0722372900 -0.0261717600 0.0062626600
C 4.6573054142 2.0719902662 6.0444027748 -0.0046583900 -0.0543870500 -0.0072013900
C 4.8485079743 6.6038374756 3.2150858648 -0.0193598800 0.0423794600 -0.0829375100
C 4.5372517820 6.5641152025 6.0323836108 -0.0300354500 -0.0469354800 0.0142301800
C 8.1683606333 2.1941986045 2.0563241287 0.0415654300 0.0201506600 -0.0152971100
C 6.1172514275 -0.2927221589 6.9583872328 -0.0233493200 0.0764620600 0.1115035200
C 5.5888088788 4.2894890784 7.3101599122 0.0259502200 -0.0042018000 -0.1282526900
C 7.9905555367 6.7371950821 2.0552093799 -0.0150749100 -0.0178585900 0.0523076400
16
Lattice="9.171866 0.0 0.0 0.097937185148 9.171875171865999 0.0 -1.9476457451 -2.809351727666 7.340574546976" Properties=species:S:1:pos:R:3:forces:R:3 energy=-298.38368028 unit=Ry pbc="T T T"
C 0.7282452432 3.1864557498 2.5583113349 0.0510535300 0.0064870600 -0.0833169400
C 0.9378122923 7.7814193691 2.4429815403 0.0389593100 -0.0048092500 0.0079065100
C 0.9442564453 -1.5869199241 5.1737863247 -0.0783872100 -0.0682720500 -0.0239064200
C 0.7450618595 3.0151904132 5.2400026113 0.0377024500 -0.0165997800 0.0215181200
C 4.3629236641 3.1030431317 1.5167945882 -0.0651635800 0.1062450900 -0.0494133200
C 2.1793261631 0.5944515651 6.0272623919 0.0744545100 0.0523927600 0.1255735300
C 4.2848591611 7.8195917582 1.3964487000 -0.0347009200 -0.0200770900 0.1373995000
C 2.2793123431 5.2409280526 6.1248666383 0.0291515300 -0.0452434200 -0.0961788800
C 5.6664943803 0.7769038267 2.3675245987 -0.0179226400 0.0362407000 0.0717388700
C 5.5969523751 0.5456755817 5.2197630546 -0.0270320500 0.0585236800 -0.0673755500
C 5.5779803703 5.5047531093 2.4109506327 -0.0028139500 -0.0835048500 0.0182745100
C 5.4092648124 5.1786996933 5.2732616318 0.0286616000 0.0483590300 -0.0997352600
C 8.6611627433 0.9443435780 1.5273403997 0.0192068000 -0.0325277700 0.0382431800
C 6.8628239705 -1.8398451353 6.1558391126 -0.0288628500 0.1053524100 -0.0227690800
C 8.7167011435 5.5831762324 1.5141485048 -0.0061754700 -0.0367274000 0.0673324100
C 6.8755985454 2.9513358821 6.1561041796 -0.0181310600 -0.1058391400 -0.0452911800
16
Lattice="9.193627 0.0 0.0 0.098169549106 9.193636193626999 0.0 -1.95226669345 -2.8160171437269996 7.357990658672" Properties=species:S:1:pos:R:3:forces:R:3 energy=-298.36846174 unit=Ry pbc="T T T"
C 0.8906298575 3.0191025254 2.6117531390 -0.0019175200 0.0113269000 -0.0895641200
C 1.1920622253 7.8326125719 2.2898759835 -0.0847868400 -0.1121613100 0.0848207800
C 0.7790826618 -1.5112024381 5.1037344636 0.0186544000 -0.1257799600 -0.0060291100
C 0.8735940667 2.9355765854 5.3425582316 -0.0222636200 -0.0124139900 -0.0590346300
C 4.1260473939 3.2643701065 1.5418732972 0.0181128200 -0.0689250400 0.0513507700
C 2.0798705588 0.5164510774 6.2429747050 0.0533836800 0.1196989000 -0.0483167400
C 4.0750429901 7.8520957062 1.4318660339 0.0731175900 0.0372522400 0.0611981200
C 2.2973779831 5.2566327549 6.0227082732 0.0115305600 -0.0163094900 0.0520043800
C 5.5241985589 0.8889419076 2.3829449084 0.0011580500 -0.0288653100 0.0308283400
C 5.6530591930 0.6636677072 5.1584420604 -0.0597736200 0.0097345700 -0.0234177800
C 5.5059059993 5.5091752530 2.4264086994 0.0144541100 -0.0488325300 0.0307569600
C 5.4201699113 5.2299114780 5.2732428808 0.0216034100 0.0186645100 -0.0801747700
C 8.7257348217 0.7471826148 1.4202995318 0.0083519000 0.1558269400 0.0055695200
C 6.8408463818 -1.6841603042 5.9681146773 0.0202626900 -0.0297485300 0.0894144500
C 8.8556913362 5.3616442012 1.6516737038 -0.0281851000 0.0905558400 -0.0554440100
C 6.9777385685 2.8555837562 6.2399518405 -0.0437025100 -0.0000237200 -0.0439621700
16
Lattice="9.219525 0.0 0.0 0.09844608795000001 9.219534219525 0.0 -1.9577661337500003 -2.823949727025 7.378717760400001" Properties=species:S:1:pos:R:3:forces:R:3 energy=-298.43023056 unit=Ry pbc="T T T"
C 0.9068758108 3.1400070294 2.4134826447 -0.0242570600 -0.0243144400 0.0070768200
C 1.1174211812 7.6847414537 2.4771665137 -0.0672879300 0.0287033400 0.0029553500
C 0.8159003039 -1.6966599662 5.2889842678 -0.0064780400 0.0400437600 -0.0694091000
C 0.9190760082 3.0058740041 5.2093137425 -0.0193718400 -0.0081404700 -0.0411814700
C 4.2166023100 3.1922006043 1.3647939443 0.0005158200 0.0432585200 0.1431251300
C 2.1957110106 0.6401051671 6.0942157373 0.0150405000 -0.0522628700 -0.0189521300
C 4.1652587753 7.7865978440 1.5061642968 0.0039056400 0.0506685900 0.0582805700
C 2.2632873630 5.2531553497 6.1869447978 0.0251161600 -0.0452497100 -0.0510857300
C 5.5284881663 0.8427494046 2.4659223810 0.0185733900 -0.0336674700 -0.0589886300
C 5.5983896828 0.5841011625 5.1832547551 -0.0491428900 0.0623408200 0.0358518800
C 5.5236506815 5.5219312401 2.4104780015 0.0180581700 -0.0837011400 -0.0141031000
C 5.4303924203 5.2581255956 5.1335357006 0.0176511200 0.0008970000 0.0573573800
C 8.7060251161 0.7474222820 1.5344710044 0.0407650700 0.1030515700 0.0052785300
C 6.8647707295 -1.8187707309 6.1281177747 -0.0072808100 0.0379016700 0.0029406300
C 8.7885868844 5.5675116497 1.5310560923 -0.0011889800 -0.0566078700 0.0002306900
C 6.7626875390 2.9552108703 6.1840913549 0.0353816800 -0.0629213100 -0.0593768300
16
Lattice="9.244938 0.0 0.0 0.09871744796399999 9.244947244937999 0.0 -1.9631625843 -2.831733754338 7.399056699168" Properties=species:S:1:pos:R:3:forces:R:3 energy=-298.41417451 unit=Ry pbc="T T T"
C 0.9667440912 3.2368173537 2.4909801316 -0.0177846100 -0.0707049500 -0.0499195600
C 0.6615437264 7.8030946960 2.5551742075 0.0614566100 -0.0449728100 -0.0190695900
C 0.7330172666 -1.7235892610 5.2810857791 0.0440236900 0.0118210000 -0.0406454700
C 0.9306389103 2.9113308215 5.2211434501 -0.0151251100 0.0242135900 0.0063388400
C 4.1596840446 3.1836783746 1.4544885302 -0.0298757800 0.0297467900 0.0357050000
C 2.2237727641 0.5854273784 6.1539308839 -0.0134786500 -0.0606769700 -0.0458610800
C 4.4021547315 7.8391702931 1.4059600016 -0.0419429500 -0.0766313900 0.0143010300
C 2.3721540190 5.1162069323 6.1064045067 -0.0325355200 0.0788457000 -0.0064022400
C 5.3343569608 0.8222845390 2.3532758556 0.0827408800 0.0270518400 0.1243224200
C 5.4725900473 0.6428846681 5.2129607554 -0.0030767000 -0.0270652700 -0.0474046800
C 5.5863896871 5.3789924460 2.3275000439 0.0303658200 0.0701180000 0.0960837600
C 5.5383908935 5.3236235878 5.1878653712 -0.0084565000 -0.1093066300 -0.0391612200
C 8.9362883489 0.9320774226 1.5410581296 -0.0643753200 0.0024235200 -0.0422130800
C 6.8938910990 -1.8342668852 6.1456159867 -0.0056323300 0.1085794400 0.0318538100
C 8.7031716903 5.4930555665 1.5219645591 0.0161880900 0.0328758600 0.0076683400
C 6.8746533075 2.8815491783 6.1561043689 -0.0024916300 0.0036822800 -0.0255962700
16
Lattice="9.044356 0.0 0.0 0.171037816316 9.204404923776 0.0 -2.1205035303360003 -2.320944548008 7.646351804368" Properties=species:S:1:pos:R:3:forces:R:3 energy=-298.56272513 unit=Ry pbc="T T T"
C -0.6031472996 0.7086325281 3.2419005687 0.0513667000 0.0460078300 -0.0143101100
C -0.5069225873 0.6999409020 5.9960815267 -0.0295701300 0.0412943500 0.0798222900
C -0.2148034550 5.3877789442 3.1265895519 -0.0735246500 -0.0110936800 0.0328529500
C -0.4421432919 5.4296932032 6.0616558211 0.0118774800 -0.0395860900 -0.0321562900
C 2.9177182900 0.8011418190 2.2719802135 -0.0747766300 0.0599051800 -0.0650920400
C 0.8074909569 -1.5276622744 7.0726963408 0.0007591900 -0.0102734700 -0.0342068000
C 0.8836091614 3.0757747421 7.0382283001 -0.0151465600 -0.0182797000 -0.1324481100
C 2.9006913854 5.4695100761 2.0534332995 -0.0442062700 -0.0371021200 0.1869236500
C 3.8205729365 -1.5347584761 6.0028476095 0.0391763200 -0.0576138300 0.0410041300
C 4.1434890054 3.2003263775 3.2598717040 0.0263508200 -0.0838360000 -0.0647051300
C 4.0422184468 2.9502969647 6.0272628485 -0.0208652400 0.1199419100 0.0426311600
C 4.2649230512 7.7272598998 3.2009124517 0.0048773500 -0.0426785600 -0.0298045400
C 5.2223712395 0.6267503555 7.0684255959 0.0255728100 0.0749088300 -0.0015452600
C 7.1467361523 3.0895321120 2.3036517393 0.0849371000 -0.0164366700 -0.0295139500
C 7.3702909262 7.6361561018 2.1763976504 0.0170734200 0.0250454600 0.0279633600
C 5.4001190635 5.3830360839 7.0017379414 -0.0039017000 -0.0502034300 -0.0074153000
16
Lattice="8.990336 0.0 0.0 0.170016244096 9.149428985855998 0.0 -2.107838217216 -2.3070820436479997 7.600681783807999" Properties=species:S:1:pos:R:3:forces:R:3 energy=-298.51737028 unit=Ry pbc="T T T"
C -0.4540254535 0.8889023904 3.2244775059 0.0116318800 0.0143926000 -0.0396056900
C -0.4337657313 0.8166605454 5.9860668851 -0.0511520900 -0.0654054700 0.0091280700
C -0.2197957345 5.3810712143 3.3053015256 -0.0875713000 0.0286095500 -0.0794700500
C -0.4055765328 5.2487145886 6.1201433620 -0.0276275200 0.0565326600 -0.0672367300
C 2.7777270323 0.8722846533 2.1729776967 -0.0664392100 -0.1609556700 -0.0212374000
C 0.7518860736 -1.5971493730 6.9078181651 0.0455060500 0.0670329700 0.0787552800
C 0.9866111601 3.0114865567 6.9485614688 -0.0141987000 0.0307773800 0.0463867700
C 2.8724213423 5.2777030280 2.1719761733 -0.0110868300 0.0676715900 0.0268498200
C 3.8717843950 -1.4949849928 6.0737882905 0.0033576700 -0.0324143900 -0.0320825200
C 4.1822099087 2.9563443308 2.9678906194 0.0651536000 0.1923832100 0.1977335500
C 4.0613618122 3.2085286498 6.0575364601 -0.0673070100 -0.2221937300 -0.0907577900
C 4.2087601689 7.6389347645 3.2454726376 0.0142630200 0.0053478200 -0.0370701600
C 5.3119067614 0.7293005515 6.9987904760 0.0087018300 0.1108866700 0.0182661500
C 7.1939607812 3.2431854961 2.2459585473 0.0540433500 -0.1104161100 -0.0205524400